21
Properties=species:S:1:pos:R:3:forces:R:3 energy=-17617.63598758549 pbc="F F F"
C        2.03112297      -1.10783801      -0.35158800       2.72979276      -1.55877755      -0.63202814
C        0.68817554       0.94896126      -1.72487641      -0.92555477      -0.52119051       2.26082812
C        2.47575017      -0.65064361      -1.63039847       1.67313734      -3.78441218       1.72467687
C        1.77067386       0.27919790      -2.26194297      -0.72669322       2.55081958      -2.26729033
C       -2.96651061       1.56078315       0.74845233      -1.04047717       2.12921468      -0.39180580
C        1.01514565      -0.46887079       0.28137106      -3.26879115       1.28027044       1.64373840
C        0.36989727       0.63499820      -0.34026285       0.58738719       0.02652552      -3.00267219
O        1.07327822      -1.61261037       2.39526150      -0.12089770      -0.04683123       0.41628462
O       -2.10584446       0.33701855      -1.18387856      -0.10680342       2.76053618       3.59579582
O       -0.99337762      -1.09717880       1.55777402       0.42867441       1.16146336      -1.62061307
C        0.38302337      -1.06937934       1.56213809       0.36110502      -0.64895465      -0.14302524
C       -1.94524343       1.06316487      -0.14420612       1.73036014      -3.53992274      -4.54013801
O       -0.62234091       1.32233264       0.28012007      -1.63345846       0.32501422       0.77613124
H       -1.52429543      -1.48738262       2.26652175       0.78225746      -0.45130275       0.82320250
H        2.52341028      -1.97959007       0.18821491      -0.45849716       0.76424034      -0.64257635
H       -0.00706964       1.48344550      -2.38974697       0.18724607       0.56311607       0.41407069
H        3.21610331      -1.21808953      -2.26929212      -0.18277055       0.40010358       1.04352125
H        2.13525289       0.55667132      -3.25108342      -0.26353120       0.08731095      -0.62536806
H       -3.81785436       2.06785085       0.24485954       0.13093158      -0.38197462      -0.36572570
H       -3.37546128       0.79255483       1.33722737      -0.82802255      -1.93621684       0.89187711
H       -2.65375511       2.27891330       1.48261166       0.94460537       0.82096816       0.64111622
21
Properties=species:S:1:pos:R:3:forces:R:3 energy=-17617.705325999155 pbc="F F F"
C        2.05973147      -1.19204492      -0.37200366      -2.50792173      -0.44479092      -0.80587927
C        0.62299693       0.91065173      -1.41447582      -1.17909486       2.04779598      -0.85599477
C        2.39682744      -0.71189651      -1.66922877      -0.58372424      -0.42954056       3.33997094
C        1.73688673       0.42973191      -2.05732334       1.17469030       0.62228052      -1.65335541
C       -3.24519382       1.73723135       0.31001841       0.12590158       0.87299944       1.48807701
C        0.79946104      -0.78076116       0.22157251       1.68851583      -0.88582534       1.73714076
C        0.00951660       0.27651577      -0.31143473       1.73391413       0.03758672       0.32174588
O        1.26012343      -2.41218217       2.08652809      -0.12074184       1.40286460      -0.87403663
O       -1.94193205       1.74355204      -1.60185564       0.82004559       0.05199123      -1.14303564
O       -0.33505377      -0.86699138       2.35229688       0.58969697      -0.95350483       1.79733720
C        0.65637204      -1.42444240       1.63473406      -0.56823879      -0.63769002      -1.31955110
C       -2.05921949       1.45983172      -0.45017376       0.98580546      -1.44570465      -0.04415260
O       -1.06790642       0.76697459       0.37792260      -0.92946279       0.55353659      -1.67561171
H       -0.18027761      -1.43610195       3.19462599      -0.79434715       1.02995610      -0.92028858
H        2.43838003      -2.05892224       0.20859665       0.66530126       0.24911018      -0.51230246
H        0.29984561       1.88286754      -1.88278620      -0.32341268      -0.81372351       0.85830712
H        3.26048434      -1.04758391      -2.15123990       1.76598685      -0.75228733      -1.10851316
H        2.22832120       1.03151996      -2.88174932      -0.80174561      -0.42722744       0.46371805
H       -3.74836964       0.83196411       0.62678402      -0.16831148      -0.63895089       0.71093585
H       -2.76011419       2.31511228       1.14451251      -1.21795340      -0.09970244       0.23620468
H       -3.92184187       2.28847392      -0.33500249      -0.35490341       0.66082646      -0.04071611
21
Properties=species:S:1:pos:R:3:forces:R:3 energy=-17617.51110517161 pbc="F F F"
C        1.98317363      -1.28034932      -0.30777853       2.01071212       1.14348193      -0.12360569
C        0.59789017       0.76360108      -1.66548963      -0.92582401       2.68358467       0.28104227
C        2.51291686      -0.72632620      -1.51644304       0.22169234      -0.12179604      -0.13915835
C        1.80542009       0.34328117      -2.10196534       2.40815512      -2.64177224      -1.46034014
C       -3.32609698       1.29962118       0.25375108      -1.75558237      -0.57638569       1.88329848
C        0.92320260      -0.60883966       0.33041552      -0.50478414       0.24345010      -0.76271856
C        0.23612053       0.48618513      -0.37133527       0.46570921      -3.54004554       1.98319452
O       -0.55402774      -1.72782108       1.97752771       0.70342066       0.74644629      -0.63732220
O       -1.99020202       0.99551550      -1.64854624      -0.55670466      -0.04565464      -2.52086097
O        1.22933514      -0.52749410       2.62371999       1.67978616       1.31969231       0.24673345
C        0.42100551      -1.03003891       1.70753265      -1.44348260      -1.00491057      -0.26027402
C       -2.06106533       1.05526226      -0.47032056       1.21860152       0.05517806       1.85133682
O       -0.87766131       0.87054344       0.30828825      -1.92225631       1.05631589       0.03386021
H        0.87887120      -0.44728115       3.52198050      -0.60850680      -0.61951879       0.39958041
H        2.71260722      -1.94624367       0.21169933      -0.94479774      -0.26889216       0.09943453
H        0.07520345       1.54422355      -2.21853768      -0.16109789       0.01830673      -0.18965442
H        3.47644536      -1.08151822      -2.06947183      -1.49743835       0.26754551       1.20224688
H        2.19214479       0.56607162      -3.08919232      -0.04268455       0.83400726      -0.60604590
H       -3.83828900       2.25398208       0.02141981       0.60140860       0.36521986      -0.00769624
H       -4.08566790       0.60945366      -0.15590578       0.14240935      -0.38043026      -0.42054643
H       -3.45653470       1.08171549       1.36704253       0.91126431       0.46617731      -0.85250465
21
Properties=species:S:1:pos:R:3:forces:R:3 energy=-17617.69354272845 pbc="F F F"
C        2.25583130       0.03293151       0.61093587      -0.23797463      -1.10917995       1.93887691
C        1.08615196       1.54538609      -1.36510942      -3.20486866      -0.09393581      -3.64397178
C        2.94537613       1.10296263       0.09676192       0.98609867      -0.67900391       0.41944949
C        2.32516585       1.81240267      -0.88775726       1.63004223       2.38937439      -1.81403406
C       -3.19710245      -0.46835070      -1.00269773      -1.05407532       1.01271171      -2.27563881
C        0.93565968      -0.28089345       0.19313275      -1.45207780      -0.23593626       1.20779754
C        0.32223454       0.48100810      -0.82738979       0.17995123      -0.34819077      -0.46307656
O        0.52204937      -1.57436050       2.20068685      -0.64799393       0.89674755      -0.91747980
O       -2.00177367       0.76149703       0.67028702       0.62553523      -0.47168698      -1.91941154
O       -1.03838279      -1.77183368       0.61209460       1.62510921       1.74160044      -2.94980663
C        0.08799223      -1.19922660       1.10287106       2.62450131      -1.22159316       0.62044141
C       -2.00209564       0.19410943      -0.42156441       0.01392490      -0.05081330       0.56505201
O       -0.93921372       0.06845674      -1.34788319       0.86102853       1.39873654       1.63725912
H       -1.40878708      -2.13140020       1.37212053      -1.63224788      -1.76514230       2.89422882
H        2.73842622      -0.49480202       1.48953474      -0.77519273       0.02025665      -0.82210309
H        0.76855129       2.06288197      -2.42706778       0.32633335      -1.03016683       2.72942674
H        3.99017588       1.27582983       0.38642049      -0.02527612       0.22191741       0.10832644
H        2.85461205       2.60268825      -1.47161186       0.08505979      -0.17900368       0.55668044
H       -3.60482130      -1.30653947      -0.47296008       0.09319266      -1.05811653       0.90848243
H       -3.96491954       0.30814946      -0.83953190      -0.45143460       0.08260490      -0.27207313
H       -3.20228574      -0.74434835      -2.12967057       0.43036450       0.47881999       1.49157413
21
Properties=species:S:1:pos:R:3:forces:R:3 energy=-17618.168014996645 pbc="F F F"
C        1.90978964      -1.26017036      -0.27664052      -1.71212278      -1.39209316       0.85583490
C        1.49279818       1.48663203      -0.46562738       2.13155402       0.89846798      -0.91049324
C        2.85603625      -0.51325785      -0.85918938       1.94225565       3.58284661      -0.08323148
C        2.69400000       0.90240077      -0.92438166      -0.72730252       0.03419846      -0.05693351
C       -2.83739645       1.76551014       0.53322640      -0.52406223      -3.03511037      -0.96796693
C        0.69300544      -0.68660972       0.21479746       1.21234731      -1.81992034      -0.78713227
C        0.56133961       0.68224101       0.15287216      -0.12137232       1.41237624      -0.09412129
O       -1.28763403      -0.98059392       1.41934240      -0.11245763      -0.69871842      -0.10753268
O       -1.53536416       0.61935027      -1.27187781      -0.65752918      -0.70796823      -0.42556569
O       -0.60042489      -2.72961163       0.15559745      -0.21581572      -0.04288473       0.41493741
C       -0.45606999      -1.46727562       0.65238472      -1.32015603      -0.45374509       1.11077769
C       -1.63365440       1.10273221      -0.17535729      -1.16706255       2.58650347       0.17156460
O       -0.54025680       1.36058434       0.59047072       0.03384257      -0.32844243       0.70764427
H       -1.43242394      -3.10693766       0.58336635       0.92642442       0.63260767      -0.41586234
H        2.18068619      -2.30936471      -0.17311037      -0.62780397      -0.61727448       0.21943558
H        1.31087364       2.58794835      -0.60191791       0.03863470      -0.79542881       0.32123994
H        3.88799983      -0.79302621      -1.03192549       0.34069004      -0.99185820      -0.46708085
H        3.50644610       1.53537021      -1.32147810      -0.13267392      -0.05623401      -0.07447610
H       -2.73524324       2.79498764       0.79599530       0.78641894       1.11295896       0.82462658
H       -3.72230171       1.76048822      -0.13889778       0.10144179      -0.40914456       0.03869178
H       -2.99139046       1.02315959       1.38311443      -0.19525059       1.08886339      -0.27435637
21
Properties=species:S:1:pos:R:3:forces:R:3 energy=-17617.940400709867 pbc="F F F"
C        2.00425702      -1.05945007      -0.35048751       0.32886075      -0.40768263      -0.82291109
C        0.89759818       1.09870470      -1.64564255      -0.59122286       2.21215562      -0.95397308
C        2.66601238      -0.47646152      -1.42071079       0.19859724       1.43034266      -2.35828501
C        2.11410232       0.68553600      -2.19925035       0.47275954      -2.84763239       2.80448350
C       -3.17791596       1.68148728       0.44630125       0.92042053       0.03641846      -1.17153443
C        0.80761611      -0.50483213       0.10373645      -0.29851801      -2.30346263       3.57568325
C        0.32440335       0.62319798      -0.44351472      -0.77437275       1.01838356      -2.07920778
O        0.25994205      -2.35506872       1.61129712      -0.55991442      -0.89633360       0.28592778
O       -2.25474485      -0.29550524      -0.64971691      -0.07144852       1.46756670       0.20085127
O        0.05339114      -0.22004670       2.35706180       0.08514942       1.15308038      -1.87091737
C        0.23580305      -1.17112925       1.41636721       1.88064463       1.48647465      -1.65497099
C       -2.04688035       0.82115257      -0.17061117      -1.21775578      -2.12105878       0.52012473
O       -0.80424899       1.28091428       0.01591710       0.69776377       1.52441911       0.36800442
H       -0.28560030      -0.65197329       3.11472883      -0.79634197      -1.17859159       2.16402527
H        2.34265950      -2.01865597       0.08084267       0.08503496       0.25535519       0.05652763
H        0.27540031       1.92590953      -2.08597931       0.63042567      -0.32238007       0.00044737
H        3.58195794      -0.95021850      -1.83007796      -0.07986524       0.12353807       0.28386159
H        2.69260280       1.07344385      -3.06883482      -0.68178040      -0.00598203       0.34058298
H       -3.00441064       2.49095029       1.15888227       0.84935850       0.15769663       0.29718665
H       -3.73333646       2.14870531      -0.37176143      -0.23932446       0.15563074      -0.56266000
H       -3.86254687       0.98484764       0.87933687      -0.83847064      -0.93793808       0.57675341
21
Properties=species:S:1:pos:R:3:forces:R:3 energy=-17617.53219325549 pbc="F F F"
C        2.25082637      -0.30576369       0.14117790      -1.83915616      -2.01181780       0.21089797
C        0.86049568       2.02811060      -0.41282888       1.44625358      -2.34611947      -0.17688833
C        2.92727136       0.85444761       0.12276785       3.97404470      -0.51292595       1.34508021
C        2.28189699       1.96596345      -0.21664413      -4.09933096       1.68717279      -0.82028265
C       -3.41993160       0.28094636      -0.63612993       0.37380895      -2.01157673      -0.78247343
C        0.88930302      -0.45061031      -0.14581566      -1.29787505       0.66996982       0.55546112
C        0.16607619       0.77087586      -0.40278385       1.34438303       1.23489091      -0.67800098
O       -0.92696479      -1.90421898       0.57188489      -3.79033915       0.55519547       0.38672026
O       -1.98219421       0.85705554       1.17795700       0.55780833      -0.01509907       1.99399254
O        1.02168073      -2.87049377       0.27388219       1.97613694       1.86301431      -1.01037241
C        0.18786259      -1.75793142       0.21665766       3.06919139      -1.12997211      -0.36321271
C       -2.10398625       0.57814052       0.03282021      -0.95794965       1.06289576      -2.16513398
O       -1.10244531       0.80800472      -0.91077602      -0.31615656      -1.02231545       0.45800721
H        0.61482530      -3.73097573       0.41125682      -1.07375307      -0.11252731       0.31628897
H        2.61536251      -1.23335993       0.45875301       1.58079299      -1.67736176       0.60050815
H        0.38566285       2.94691578      -0.74899096      -0.34917329       0.21029309      -0.02641373
H        4.02266781       0.95862339       0.46115855      -1.23429488      -0.50202997      -0.71274261
H        2.84261660       2.79074386      -0.47728895       1.41618364       2.70339899      -0.17408664
H       -3.34526358      -0.68493721      -1.29169001       0.05862935       1.65800623       0.44432539
H       -3.98334788      -0.08994403       0.22555507      -1.00023640       0.46369840       0.09151424
H       -3.82831547       1.17106788      -1.20493359       0.16103227      -0.76679016       0.50681140
21
Properties=species:S:1:pos:R:3:forces:R:3 energy=-17617.734508577534 pbc="F F F"
C        1.97188176      -1.14053173      -0.26398045      -0.99900500       3.63333050      -0.28501406
C        0.87786447       1.17798970      -1.58750285       0.80498504      -1.45788284      -0.08511204
C        2.71509040      -0.50168642      -1.30134795      -1.36566828      -1.56423142       1.82148656
C        2.08819520       0.50378959      -1.97752444      -1.50657981       2.44358324      -0.83424010
C       -3.28116567       1.53204593      -0.14132433       2.58439795       0.81766465       1.65370750
C        0.76966058      -0.36161244       0.22637522       1.92119295      -2.99900651       0.65470106
C        0.25865876       0.81030099      -0.35745094       1.81680262      -0.08572293      -1.50919154
O       -0.47253659      -0.36042193       2.31853371       0.63854491      -0.28550771      -0.94359780
O       -1.98261586      -0.42331716      -0.66588260       0.53976375      -0.26752896      -0.49099448
O        0.64019919      -2.22000032       1.73450179       0.60152662      -0.61568682       1.20922507
C        0.22795094      -0.95476474       1.48711863      -1.15228817       1.20380497       1.45019050
C       -1.99342039       0.72987977      -0.34025947      -1.06327607       1.38094090       1.63825336
O       -0.85140296       1.49279452       0.07060606      -0.82983821      -1.34221873      -0.97367119
H        0.60378150      -2.35343213       2.74082578      -0.43595876       0.26366181      -1.52086317
H        2.34946594      -1.99517099       0.29614689      -0.15396230      -0.19462221       0.13373167
H        0.38279521       1.77135232      -2.37566637       0.03880208       0.50363372       0.53745783
H        3.69478859      -0.79704069      -1.61965462       0.85329897      -0.69288351      -0.27456396
H        2.55458908       0.85638804      -2.90107599       0.12691161       0.21153195      -0.29882079
H       -3.38559575       2.18242332      -0.99068904      -0.34934818       0.80278654      -0.84841619
H       -3.99608638       0.75178033      -0.14581870      -1.69056454      -0.73552882       0.27420246
H       -3.18844671       2.17819434       0.82314968      -0.37973719      -1.02011788      -1.30847067
21
Properties=species:S:1:pos:R:3:forces:R:3 energy=-17617.822848977943 pbc="F F F"
C        1.99753184      -1.07819783      -0.16736099       3.43060268      -2.03379565       0.56726187
C        1.14088503       1.37969705      -1.08634060       1.84881935       0.32722979      -2.34372741
C        2.81214742      -0.30305153      -0.97581932       2.49221316      -3.04615332      -1.75294786
C        2.36360848       0.78493775      -1.60192982      -2.83292325       3.36042335       0.84442455
C       -2.93891857       2.02175110       0.17232940       0.13519849       0.47891127      -1.41242998
C        0.84282457      -0.59203389       0.25413821      -4.90311340       0.57932055       2.70110484
C        0.40582115       0.67586780      -0.15738805       1.17338649       0.14245245      -1.42837489
O       -0.71616887      -1.00123219       2.19839003       0.17264688       0.74296990      -1.02936187
O       -2.08083605       0.23096684      -1.26641442      -0.14182139       0.92101399       1.31629603
O        0.06030387      -2.71411389       1.02711838       1.13457382       1.01260172      -1.76708029
C       -0.05803411      -1.37189434       1.23001177       1.13807186      -0.09165349       0.21572223
C       -1.94228245       1.05118132      -0.36115373       0.87680565      -0.90250333      -1.69320990
O       -0.71199861       1.26828388       0.22225953      -2.19083114       0.98974593       1.82105214
H       -0.53461191      -2.94645640       1.71410393      -1.45199377      -1.61576109       1.81437020
H        2.36989033      -2.02136698       0.28904195      -0.14294255       0.15401311      -0.47769771
H        0.77209284       2.33311947      -1.56036025       0.07556218      -0.68157579       0.61389404
H        3.71715685      -0.72219714      -1.49914861      -0.23396412      -0.14893461       1.05005864
H        2.93158415       1.25202271      -2.38873846       0.34227888       0.50851424      -0.55578204
H       -3.12286107       1.82012914       1.19298865      -0.09157934      -0.23764146       1.99286470
H       -2.62429452       3.10730877       0.06968378      -0.24148141      -0.90565216      -0.08491283
H       -3.85866979       1.75573741      -0.34699947      -0.58950907       0.44647447      -0.39152452
21
Properties=species:S:1:pos:R:3:forces:R:3 energy=-17617.90839084381 pbc="F F F"
C        1.99598328      -1.32226572      -0.16095072      -0.45955574       0.55747789      -1.45503740
C        1.13566563       1.33116832      -0.81876401       1.84944834       1.27940264      -0.79089282
C        2.78553021      -0.53674992      -1.06357265      -1.24028920      -1.26005837       1.87537983
C        2.34142854       0.72402791      -1.26828241       0.91600224       3.77800715      -1.06699132
C       -2.99719385       2.06690588       0.35023605       0.15027323      -0.33489040       0.66574699
C        0.76025579      -0.79487453       0.31846014       0.35448412      -0.02761217      -1.06789013
C        0.33085016       0.54991697      -0.08703582      -1.90357148      -3.22503430       2.37696063
O       -1.37832029      -1.59629398       1.13397309       2.05754494      -1.02009309      -0.51107337
O       -1.58222414       1.86610654      -1.54866762      -0.10151162      -0.49437826       0.61496367
O        0.57324367      -2.78348387       1.65312019      -2.05919055      -0.78213322      -1.45908046
C       -0.15206494      -1.75382479       0.99817465      -1.28696652       0.61106850       1.69991688
C       -1.81148933       1.57078908      -0.38200013       0.74070872       0.50223119      -1.86662574
O       -0.92410002       0.90613704       0.41479042       0.72033642       0.20259489       0.10789053
H       -0.07834942      -3.57528396       1.61150661       1.04835169       1.43114860       0.55066909
H        2.16025936      -2.40010400      -0.08932941       0.28506877      -0.14316480       0.60862960
H        0.93490224       2.42288270      -0.89695911       0.09505337      -0.56272397      -0.46463033
H        3.73850657      -0.76527818      -1.50833812       0.63976166      -0.85252805      -0.12281024
H        3.10900746       1.39582400      -1.76168359      -0.91502872      -0.27660120       0.03612474
H       -3.87774587       2.01642246      -0.34774493       0.42650980       0.54600670       0.64081016
H       -3.12977721       1.48648318       1.29027644      -0.28576796       0.11740989      -0.21565317
H       -2.59018485       3.07388608       0.64747522      -1.03166152      -0.04612952      -0.15640711
21
Properties=species:S:1:pos:R:3:forces:R:3 energy=-17618.03962643819 pbc="F F F"
C        2.14882846      -0.97390838      -0.27291027       2.02694211      -1.19153165       0.98671044
C        0.51147534       0.51281779      -1.94150484       3.61425707      -0.16009022       0.25179339
C        2.75482276      -0.30980656      -1.34254765      -1.43972971       1.12393377      -0.53613449
C        1.94263961       0.50300365      -2.16717991      -1.86791628      -1.47754762       1.27112451
C       -3.37149166       0.96316897       0.15381334       0.45944667       1.94375223      -0.22101089
C        0.79272097      -0.80769323       0.16141080       1.95172759       0.27921524       0.05672062
C        0.04982581      -0.03791416      -0.75636327      -3.26198338       0.17054351       0.06431072
O        1.00436677      -1.97436234       2.33395799      -0.46355278       1.44168642      -0.93975595
O       -1.26259598       2.25249722       0.02273383      -0.58463724       0.30281232       0.07314915
O       -0.68792597      -0.45048727       1.98157082       1.08298554      -0.45378320       0.55788567
C        0.44569953      -1.15035289       1.60502108      -0.71884220      -0.99882440      -0.64758497
C       -1.94740902       1.27277060      -0.14805866       1.48885565      -0.70973324      -0.68923732
O       -1.38966653       0.06743011      -0.60710081       1.23184014      -0.20628520       0.25872267
H       -0.71870205      -0.63419467       2.94975021      -0.31042876       0.01095902      -0.08410612
H        2.97974092      -1.62434474       0.19296800      -1.77426098       0.56771968       0.48779978
H       -0.10148433       0.97496193      -2.68345334      -0.97648480       0.54468886      -0.41229159
H        3.83732787      -0.32918920      -1.49930993       0.15675144      -0.31900468      -0.04491580
H        2.35484692       0.98204293      -3.01666975       0.54747640       0.86305472      -1.25396079
H       -3.63594689       0.05155975      -0.32630014      -0.83183843      -0.90786902      -0.90809841
H       -3.25685478       0.72413363       1.18066435      -0.28964256      -0.44185821       1.96816004
H       -4.02489254       1.85811069       0.08085394      -0.04096546      -0.38183840      -0.23928065
21
Properties=species:S:1:pos:R:3:forces:R:3 energy=-17617.41100756692 pbc="F F F"
C        1.98386931      -1.09685092      -0.33806658      -2.57440777      -1.02053527       3.35704153
C        0.97404185       1.34388191      -1.41399191      -4.35348735       1.12581536       2.00864989
C        2.43062193      -0.48683278      -1.39422790       4.67248925       1.65194563      -5.32860267
C        1.95751068       0.69073989      -2.00993920       1.16418235      -1.67524898      -0.42127765
C       -3.12911820       1.84347777       0.02289914       3.20815875      -0.75965791      -1.72504048
C        0.82378274      -0.51086947       0.24879988       0.01550592       1.18583969      -0.05278343
C        0.30725375       0.70375212      -0.30067106       1.55652783      -0.55939162       0.50146299
O        0.36081903      -2.51345964       1.44296884       0.01223085       3.61506259       0.33769193
O       -2.01745449      -0.18293772      -0.92022044      -0.59950737       2.58613668       1.57875328
O       -0.17506239      -0.53351776       2.43493465      -0.62484278       0.09435963       0.93778669
C        0.32580567      -1.22804887       1.42782525      -0.42207433      -4.62197564      -0.66862971
C       -1.98492103       0.87139980      -0.23540730      -0.39320109      -3.03119011      -1.42613829
O       -0.80890864       1.30128909       0.26427546       0.73524975       0.82837839       0.10397248
H       -0.51378050      -1.23228994       3.06583499       0.29135235       0.48926963      -0.37828668
H        2.36553764      -2.01103019       0.11972808       0.27095300      -0.14371892      -0.04051958
H        0.48361085       2.23858898      -1.84467523       0.15988006      -0.06681416       0.13880796
H        3.40111008      -0.74049189      -1.90333644      -0.55033778      -0.81414131       0.41249867
H        2.26071643       0.94960860      -3.01158654       0.78555850       0.43656487      -0.48710435
H       -3.77435192       1.54747838       0.76675108      -1.77752546      -0.81459799       2.47215788
H       -2.66136742       2.80935143       0.15294459      -0.21525157       0.89184996       0.13842296
H       -3.59994411       1.66855017      -0.91081965      -1.36145306       0.60204942      -1.45886325
21
Properties=species:S:1:pos:R:3:forces:R:3 energy=-17617.776340434604 pbc="F F F"
C        1.69224630      -1.42792712      -0.54692041      -1.70181682       0.69657700      -1.15006457
C        0.98378841       1.14856905      -1.32449124      -2.08568254       1.14971213      -0.44264934
C        2.41710516      -0.68995004      -1.49449167       1.27862976      -2.05496160       0.29158220
C        2.09362313       0.61219875      -1.87265374       1.37474623      -2.01575987      -0.13213255
C       -2.30498827       1.81983554       1.46281199       3.51926875       1.65297072       1.36989610
C        0.40951200      -0.96216444      -0.20080476      -0.15668788      -0.87152934       1.77778982
C        0.10933778       0.34437537      -0.60422132       0.15311826      -0.50238031       0.47739699
O       -0.92052695      -1.37539175       1.88453476       0.44626642      -1.20403395      -1.72028388
O       -0.41517967       2.88945265       0.37268316       1.06802871       0.93448658      -0.26250697
O       -0.41639835      -3.12163351       0.43646126      -0.18188712       0.13654009       0.46584996
C       -0.45015892      -1.83103013       0.83343387       0.92482673       2.42242706      -0.15503754
C       -1.14846616       1.95349862       0.47317572      -2.18968901      -0.24015184       1.59711307
O       -1.10071457       0.80519576      -0.22202617      -0.66991948      -0.62672503      -0.42518239
H       -0.76927397      -3.65443755       1.18100859      -0.16203603      -0.06716393       0.06373711
H        1.86212519      -2.46715391      -0.34120626       0.73906923      -0.86572013       0.24044854
H        0.58157321       2.10106259      -1.67558047       0.14900115       0.33216025       0.13141973
H        3.17707832      -1.37090542      -1.94873446       0.28325064       1.08951558      -0.15314094
H        2.63106214       1.05580500      -2.67884415       0.72130125       0.85955087      -0.73414726
H       -3.21483404       1.88946562       0.98614296      -2.82005544      -0.12039787      -1.23509022
H       -2.15194690       0.98055512       2.12876893      -0.17483360      -1.13925447      -0.05011180
H       -2.13405502       2.67932339       2.13004334      -0.51489927       0.43413806       0.04511393
21
Properties=species:S:1:pos:R:3:forces:R:3 energy=-17617.8273684449 pbc="F F F"
C        2.09593482      -1.09690108      -0.41767373      -2.06999880       3.14784697      -0.91818315