21
Properties=species:S:1:pos:R:3:forces:R:3 energy=-17617.826906338443 pbc="F F F"
C        2.13746084      -1.09794747      -0.19298651      -0.62552556      -0.87749034       1.29330383
C        0.88132331       1.10003051      -1.52512707       2.56502997      -2.89618882       0.15626493
C        2.72852366      -0.64495417      -1.35901235      -2.75213741       1.77337251       0.91530054
C        2.05045871       0.43181448      -1.97927324      -0.39983295       0.02187249       0.05394768
C       -3.13430958       1.30858248       0.61286686       0.74066815       0.91375216       0.30934658
C        0.85659345      -0.60175359       0.23576132       0.50360400      -0.90515377       1.85362428
C        0.33428615       0.53085801      -0.36410058      -0.62262973       1.37125950      -1.83421183
O       -1.11545171      -1.12233611       1.67749151       3.43236450      -0.44244175      -0.00445356
O       -2.23926079       0.60416411      -1.57045411       1.13103516       1.46764799       2.49157100
O        1.12675979      -1.50115125       2.40810773      -0.22333394       0.97935132      -2.74167975
C        0.12721811      -1.13662842       1.50227315      -0.73945742       0.70265314      -0.11306858
C       -2.01019625       1.07060160      -0.43521139      -1.99721511      -2.47076763      -1.54832488
O       -0.74212037       1.18419089       0.13712028      -1.96925980       0.36955778       0.94815750
H        0.81156629      -1.87947766       3.20391466      -1.33487175      -0.89268829       1.90693294
H        2.63882394      -1.86635266       0.44709135      -0.43649113       0.19418044      -0.41678192
H        0.45412871       1.81052147      -2.19795815      -0.73429340       1.03619931      -0.08380869
H        3.57241406      -1.09521715      -1.77938372       1.82377469      -0.73644141      -0.77213718
H        2.41930137       0.72935978      -2.92649836       0.68609965       0.64808001      -1.45723826
H       -4.22328880       1.12828799       0.29903782       1.45438799       0.54640641      -0.12534884
H       -2.94435616       0.68785278       1.50734667       0.21953338      -0.66521688      -0.21916839
H       -2.90374843       2.29973565       1.10954616      -0.72144940      -0.13794417      -0.61222740
21
Properties=species:S:1:pos:R:3:forces:R:3 energy=-17618.047421677205 pbc="F F F"
C        2.01017788      -0.97843255      -0.33918211      -0.80110674       1.06524657       0.74784960
C        1.12901693       1.35446383      -1.43136241      -1.17856753       2.28865096      -0.66767866
C        2.88585291      -0.28190778      -1.16017476      -0.81508028       0.33879416      -1.72381015
C        2.33094812       0.85128818      -1.82127186       1.90980378      -0.90984116      -0.37616135
C       -3.10423541       1.43895964       0.37005893      -0.45281451      -0.86114645       2.30516969
C        0.78805605      -0.42171847       0.17591585       0.66858333       0.00849945      -1.08878369
C        0.37840049       0.81720233      -0.40798597      -2.17786074      -1.06636880       1.26753087
O       -0.58538704      -0.41823136       2.13243545      -0.47247250       0.21839531      -0.36689088
O       -2.11716998      -0.47135863      -0.77573036      -0.30814546      -3.03783153      -1.48923596
O        0.33682466      -2.39180603       1.55232777       0.73387704       0.82152439      -2.10984254
C        0.05200152      -1.04761967       1.30391992       0.49852710      -1.05488378       1.86093671
C       -2.09775961       0.56230953      -0.24302773       2.35900605       3.59551701       1.78151812
O       -0.88646874       1.37658047      -0.08951713       1.36538865      -0.93736344      -0.70017459
H        0.01493895      -2.68936577       2.41051341      -0.55991520       0.39749869       0.63688105
H        2.19376448      -1.99737924      -0.14011604       0.58047539      -1.61071180       0.92217063
H        0.75237702       2.26277378      -1.95718102      -0.13048267      -0.44736505       0.22552025
H        3.80491628      -0.72216685      -1.59149383      -0.14299299      -0.11206791       0.37601974
H        2.77859645       1.22874169      -2.76524699       0.24490735       0.16553489       0.52940215
H       -2.73668392       1.79941086       1.40503254      -0.22786283       0.02165528      -1.60607769
H       -3.30127776       2.18580973      -0.37859005      -0.43872589       1.18432762      -0.25263378
H       -3.98301721       0.83099475       0.60090396      -0.65454135      -0.06806448      -0.27170957
21
Properties=species:S:1:pos:R:3:forces:R:3 energy=-17618.029314650314 pbc="F F F"
C        2.20528156      -0.91373381      -0.10882777      -0.22452441       0.96947617      -1.30731285
C        0.63445531       0.92939613      -1.67627784      -0.05825649      -0.20372921       2.49595329
C        2.65629729      -0.40612368      -1.33565411      -1.09686179       0.40426584      -0.70158942
C        1.88438082       0.54937794      -2.14442482       0.92466635      -1.06103356       0.86526649
C       -3.10450491       2.23168937       0.07353293       2.71519028      -1.61972136       0.49051240
C        0.95446855      -0.49708906       0.38163012      -0.39909067       0.67557257      -0.75578033
C        0.21199260       0.46245228      -0.37369035       0.94281233      -0.22085246      -0.00109668
O        1.12744713      -2.23436694       1.95171568       1.32763630      -1.14832779       0.33054595
O       -2.38431759       0.23061361      -1.12354646       0.67436847      -0.52889035       0.07403181
O       -0.70321183      -1.05716217       2.05603382      -1.75168293       1.10590426      -0.08033071
C        0.49270645      -1.29793141       1.52500407      -0.55134781      -0.51089961       0.85933099
C       -2.05096011       1.04016815      -0.28992237      -2.59732911       1.61880934      -0.64086112
O       -0.81601307       1.12575811       0.28497930      -0.46982262       0.03799079      -0.33203544
H       -0.96048939      -1.78698879       2.67359656       0.63613512       0.26520632      -0.33015622
H        2.80493198      -1.63840179       0.44984928      -0.09967241      -0.19102739       0.05728626
H        0.05483763       1.75702150      -2.07562367      -0.22155771       0.20057097      -0.55652741
H        3.50907729      -0.97226919      -1.68471082       0.95594203       0.44746805      -0.71030505
H        2.25105561       1.07614079      -3.05704986       0.15039166      -0.70831445       0.26376918
H       -3.37095956       2.06149045       1.14572643       0.07461571       0.64942578      -0.22206103
H       -2.52625547       3.17802289      -0.14506226      -0.81005788      -0.34533479       0.44484069
H       -3.97686721       2.04502468      -0.56023930      -0.12155441       0.16344078      -0.24348070
21
Properties=species:S:1:pos:R:3:forces:R:3 energy=-17617.69366459186 pbc="F F F"
C        2.24155120      -0.34007953       0.07992599       0.72928839      -2.12065604       1.12539611
C        0.89083425       2.03356452      -0.36203273       0.10745781      -0.61431256      -1.10179425
C        2.93307549       0.84171434       0.10180079      -1.24454258       1.24320540      -0.44161493
C        2.28870788       2.03398631      -0.24118164      -0.11044323       1.49650993      -0.47409780
C       -3.41132529       0.25345622      -0.64555668       0.49004780      -0.08388408       2.49897964
C        0.84093089      -0.43482953      -0.13293618       0.81015630      -1.04575600       0.24739459
C        0.18538057       0.79029039      -0.40717657       1.46358966       0.62243705       0.48249858
O       -0.95325226      -1.93456514       0.59716728      -1.49348343       0.53061211      -0.45502509
O       -2.00361941       0.86815754       1.17925392       0.35176168      -0.75893538      -1.91942964
O        1.03422464      -2.87788727       0.29061143      -0.48904564       0.07490244      -0.72990324
C        0.17590381      -1.77830674       0.20195955       1.30048369      -0.55133835       0.57221094
C       -2.08699708       0.58369713      -0.02779536      -1.35655294       1.53481768       3.40795546
O       -1.07492945       0.80284787      -0.87851656      -0.57160961      -0.41444828      -1.17558299
H        0.44106912      -3.69038314       0.44128891       0.70698329       1.50713224      -0.02030874
H        2.89181931      -1.23255951       0.37433151      -1.24904114       0.57987776      -0.27556196
H        0.35580398       2.96598036      -0.60179100      -0.13003041      -0.16379837      -0.07069082
H        3.82602689       0.97919509       0.63691522       2.34145898      -0.38991728       0.18207995
H        2.90708414       2.97323444      -0.51286060      -0.92745127      -1.04229375       0.94785066
H       -3.38826661      -0.64263063      -1.17792651       0.27642354      -1.89134542      -1.84478884
H       -3.99909140      -0.02462449       0.25354586      -0.40542237       0.55224132      -0.24642816
H       -3.80619748       1.07445902      -1.20372899      -0.60002854       0.93494969      -0.70913947
21
Properties=species:S:1:pos:R:3:forces:R:3 energy=-17617.908284990663 pbc="F F F"
C        1.68529619      -1.46474992      -0.82545234       0.33487040       2.09227254      -0.92981848
C        0.73296790       0.93926139      -1.89074763      -1.02274153       0.03685431       0.35295354
C        2.44573076      -0.72823165      -1.81666454      -1.09387772      -0.46858952       0.86659348
C        1.87231178       0.39248108      -2.45110990       0.72578202      -0.46901416       0.83909408
C       -2.50742964       1.86088134       1.23969029       1.27969688       1.23277525      -3.18464354
C        0.49327154      -0.92039348      -0.27694827       0.26970154      -0.28305987       0.09019048
C        0.09225510       0.34392635      -0.79684554      -0.18054248       0.07074198       0.70562821
O       -1.54229646      -1.20841086       0.88372633      -2.59182993       0.10756457       0.70640129
O       -0.13634954       2.05642484       1.61924144       1.64566334       0.08198208       0.36243654
O        0.18845838      -2.45959386       1.69941207      -1.75518261       0.84345442      -0.70091420
C       -0.40675125      -1.54009424       0.79727849       3.37821488      -0.98116030       0.02390926
C       -1.03687463       1.71612143       0.91826694      -1.51371437       0.49262374      -0.02944470
O       -0.99564892       1.01249983      -0.24830861       0.61632034      -0.37310760      -1.43831313
H       -0.61627103      -2.70514107       2.27782762       1.29205216       0.28629468      -0.79485602
H        2.06855210      -2.39199954      -0.46987391       0.48595666      -1.09918442       0.63415527
H        0.25016285       1.85012874      -2.23106722       0.02410462       0.50835453      -0.38752347
H        3.51116674      -0.91360183      -1.99496773      -0.01860071      -0.74377343      -0.32325857
H        2.40944723       0.89173901      -3.25748604       0.11991708       0.22945923      -0.26340825
H       -2.68988595       2.68271575       1.85709022      -0.33450283       1.29835512       2.02838872
H       -3.04278821       2.08369019       0.28801240      -0.11193611      -0.62310991       0.23963170
H       -2.59543558       0.87672131       1.56812286      -1.54935167      -2.23973324       1.20279777
21
Properties=species:S:1:pos:R:3:forces:R:3 energy=-17617.647779641473 pbc="F F F"
C        2.02339183      -1.28850390      -0.22763089      -2.18174152      -0.93906412       1.22736323
C        1.01640662       1.20222642      -1.22736480       0.08808927      -2.19322345       1.10217760
C        2.70449742      -0.60518299      -1.18712918       1.87175005      -0.55831494      -1.08867966
C        2.18304256       0.62689815      -1.66014108       0.60678201      -1.57332120       0.50807006
C       -3.07468736       1.41779447       0.34496022      -5.23354591       2.49260834       1.18694079
C        0.77636976      -0.76374098       0.24844210      -0.70563438      -0.34367262       0.97065204
C        0.30377736       0.46679098      -0.26467621      -1.38476984       1.29770479       0.96719087
O       -1.15454470      -1.46183805       1.73737805      -0.35288720       0.72561721      -0.74677884
O       -1.78386971       1.91671305      -1.63778351      -0.99395010      -1.22491852       2.46091357
O        0.85094858      -2.36603180       1.98497499       2.64680811       1.15478862      -2.29248983
C       -0.00041356      -1.51734772       1.36009922       0.27119556      -0.29229209       0.32472189
C       -1.97145749       1.48586515      -0.48051206       5.67750436       1.53855252      -4.37306862
O       -0.85357641       1.06734825       0.31737096       0.39582105      -1.25706262      -0.77222470
H        0.52861849      -2.89418128       2.68112345      -1.70188737      -1.03306143       1.70631019
H        2.25375030      -2.32807174       0.10074249       0.31975276       0.63151582      -0.01803604
H        0.63176692       2.06804668      -1.67905086      -0.70602283       1.57342307      -0.52907953
H        3.65196604      -1.18272122      -1.55380053      -1.32105299       1.55504513       0.07809596
H        2.64557603       1.09045417      -2.46227061       1.53018666       1.22993068      -1.95034326
H       -3.99703443       1.98066005      -0.09008466       1.15134159      -1.10257561       0.02509125
H       -3.31269018       0.37695390       0.51213507      -0.26952434      -0.74821347       0.87273405
H       -2.91362954       2.07632323       1.23199163       0.29178511      -0.93346606       0.34043900
21
Properties=species:S:1:pos:R:3:forces:R:3 energy=-17617.635736390483 pbc="F F F"
C        1.61318763      -1.56742985      -0.89466401      -1.89446288      -1.01802623       0.38222114
C        1.01551967       1.19221874      -1.10461517      -2.09338058      -0.16841196       0.77123878
C        2.28088014      -0.74645201      -1.81344261      -1.68211882       0.80554230       1.28258957
C        1.87043010       0.60968469      -1.98164061       2.50983068       0.55986028       0.30509536
C       -2.54430440       2.30354962       1.00127839      -0.60321290      -1.80714016      -0.91547820
C        0.43217774      -1.09405421      -0.12762032       1.82857082       1.63873853      -1.82935954
C        0.23418816       0.30109684      -0.31087496      -0.34465453       0.12234780      -0.51599564
O       -1.21531485      -1.62242368       1.67171579       0.52385350       0.62923304      -1.87305653
O       -0.28718535       2.96133629       0.62865934      -1.04018391      -1.73710281       0.26140937
O        0.04174868      -3.21155141       0.71744210       1.11746760       1.43786036      -2.23384767
C       -0.41814412      -1.90381034       0.76259486       0.48738671      -1.58865553       2.42450796
C       -1.15391792       2.07312485       0.60671236       2.24785129       1.69010889      -1.14069387
O       -0.97450012       0.80471931       0.03077474      -1.31126510       0.75452697       2.00862315
H       -0.50941170      -3.70017036       1.29192786      -1.43298956      -1.18437493       1.67701831
H        1.76568599      -2.68533731      -0.86775262       0.38076322       0.94244230       0.20183323
H        0.66242419       2.26112090      -1.04489703       0.75547133      -0.85040987      -0.43762499
H        3.18875770      -1.04702767      -2.25497177       1.25761479      -0.88245488      -1.12354600
H        2.46068173       1.36689324      -2.53275667       0.10866083      -0.63596723      -0.65027506
H       -3.14939722       1.89550786       0.15334079      -0.09176251       0.12763815       0.25393090
H       -2.72749100       1.57587004       1.82397455      -0.44701878       0.69740418       0.33182266
H       -2.71354550       3.37246729       1.06274601      -0.27642117       0.46684076       0.81958706
21
Properties=species:S:1:pos:R:3:forces:R:3 energy=-17617.53793819611 pbc="F F F"
C        2.42603015      -0.37562182      -0.09092446      -2.86506895       0.08004228      -0.45882246
C        0.57999760       1.77704637       0.05801693      -0.28603510      -2.31863745       0.05369762
C        2.91411060       0.89671076       0.09113495      -2.23253646      -2.09444641      -0.33212554
C        1.95402602       1.83835043       0.17260949      -0.50515654       4.71837662       1.10372597
C       -3.64351459       0.68126717      -0.02338268       1.19663365      -0.07976373      -0.33676813
C        1.01132554      -0.62082228      -0.20582631       0.89423573      -0.10845823       0.78457150
C        0.07899472       0.43810319      -0.00795176       1.14922331       1.64530143      -1.01421380
O       -0.31706608      -2.13484871      -1.42020372      -0.57687240      -0.77416059      -0.15439487
O       -2.10837891       1.90676427       1.39531102       0.29967907      -0.11402555      -1.01432076
O        1.13623413      -3.00651709       0.11022473      -0.28982095       0.60498887      -0.23769124
C        0.50217284      -1.98219367      -0.54119828       0.82082145       0.69889413      -0.01941184
C       -2.31048730       1.13064270       0.49784779       1.37763255      -2.11600851       1.19824023
O       -1.21934353       0.18610849      -0.06851401      -3.24307728       0.75436828       0.46333706
H        0.76546047      -3.78086042      -0.34898736      -0.05205689      -0.60662203      -0.04251573
H        3.08320671      -1.18066812      -0.10275164       1.37352460      -2.10381865      -0.11586152
H       -0.07350620       2.65172266       0.14357628       0.07660765      -0.00479783       0.12169129
H        3.82593872       0.96641715       0.54218337       3.37689231       0.84074895       0.77632520
H        2.23927123       2.82977088       0.55946331       0.52958943       0.34737779      -0.37883952
H       -3.90601909      -0.38402270       0.10272269       0.51925755      -0.15138672      -0.09110230
H       -4.36382494       1.26031724       0.50683132      -1.08411004       0.87495945       0.48122840
H       -3.60559836       0.94784185      -1.07821441      -0.47936275      -0.09293205      -0.78674959
21
Properties=species:S:1:pos:R:3:forces:R:3 energy=-17617.774806984155 pbc="F F F"
C        1.66127015      -1.34456663      -0.78574822      -3.28834856      -1.09106734       3.17637970
C        0.71315424       1.01547702      -1.96080358      -0.70898242      -2.12871753       0.38142975
C        2.29535152      -0.81141316      -1.78627265       2.87281882       2.79530034      -4.14365269
C        1.84416199       0.36412032      -2.47103364       0.65590532      -0.21710235       1.19853097
C       -2.16757191       2.57121012       1.15234014      -0.66896946      -0.84021982      -1.39818632
C        0.46055269      -0.83332381      -0.26800186       0.22998795       1.52701952       0.25173492
C        0.01495222       0.39762055      -0.85096960      -0.58899017       0.24637885      -0.37785890
O       -1.44681610      -1.64467724       0.74425632      -1.23822244      -0.25794563       0.57878731
O       -0.40193480       1.11976301       1.77610272      -1.09434206       0.31050311      -2.06663744
O        0.44596604      -1.96133335       1.94138366       0.02408189       0.64595787      -0.44283086
C       -0.25167784      -1.51354977       0.86387678      -0.00855951       0.51749573      -0.79563126
C       -1.16982637       1.51612534       0.87307129       1.34867683      -0.63011678       2.69554658
O       -1.17093554       1.11019789      -0.41383109       1.64689947      -0.87296108      -0.68500842
H       -0.26403830      -2.00661321       2.62085739       0.15370154      -0.42868315       0.05563325
H        2.00382353      -2.23214185      -0.33725599       0.82896152      -1.53183335       0.85183853
H        0.22324441       1.71720515      -2.62894621      -0.26992214       0.99470565       0.36826230
H        3.26615361      -1.25830447      -1.98884294       0.43093318      -0.06733624      -0.72617566
H        2.47821879       0.86354532      -3.23160589      -0.34947488      -0.36911550      -0.09690929
H       -2.18817059       2.80030085       2.16277935       0.48548255       0.72789290       2.62643226
H       -1.98362601       3.43345872       0.55299959       0.34710623       1.28480011      -0.79081481
H       -3.19822906       2.30393694       0.95922305      -0.80874369      -0.61495539      -0.66086981
21
Properties=species:S:1:pos:R:3:forces:R:3 energy=-17617.559878211905 pbc="F F F"
C        2.30080657      -0.30108406      -0.33309061      -1.63745097      -0.79057765       0.99801476
C        0.67188187       1.71223414       0.80936022      -0.79373456      -0.15063843       0.30873949
C        2.81214302       0.86082180       0.14067843       2.76707676       1.76263701       0.43328862
C        2.03297213       1.85619960       0.74517633       1.37704449       0.45903560      -0.97562162
C       -3.65435892       0.68724805       0.20727219       1.08609411      -3.03832785      -2.27877350
C        0.89229290      -0.53647157      -0.12565303       2.01834460      -2.42788773      -0.34881355
C        0.11247712       0.48527682       0.33280430      -2.07450960       1.97061986       1.17040561
O       -0.42283641      -2.50080072       0.58319227       0.94772807       0.48942513      -0.71566925
O       -1.83164609       1.82644274      -1.04537561      -0.23080773       1.67324301      -1.55508056
O        1.10088779      -2.70251459      -1.18914364      -2.06274376       0.21700208       0.79960367
C        0.43809587      -1.99051555      -0.11690688      -0.43253760      -0.13548840      -1.64805693
C       -2.23844676       1.07893721      -0.22758308       0.88672600      -1.75619023       1.63481868
O       -1.25335723       0.27065646       0.48701541      -1.09036579       0.08299448       0.22187864
H        0.35964282      -3.30666459      -1.52266359       1.26595113       0.40427597       0.70578438
H        2.96667988      -1.11829555      -0.52012122       0.43471877      -0.86677104      -0.73228244
H        0.07983837       2.46786640       1.36046555      -0.26157788      -0.21318980      -0.47796839
H        3.93816282       1.11857085       0.17815904      -1.33019213      -0.81770527      -0.44349503
H        2.67336229       2.73573122       0.94727833      -0.90022615       0.26254117       0.70196809
H       -3.58845209      -0.51532375       0.25544147      -0.46218778       2.29067874      -0.18310546
H       -3.87225475       0.97905034       1.18822773      -0.26945369       0.77445133       2.24082133
H       -4.47947245       1.04168375      -0.46991076       0.76210365      -0.19012802       0.14354347
21
Properties=species:S:1:pos:R:3:forces:R:3 energy=-17617.850659041636 pbc="F F F"
C        2.03399549      -1.05287678      -0.15879564       0.18434905      -0.35131585       2.75459153
C        0.75300541       0.99330711      -1.67161789      -0.77920016      -1.46503498      -0.06925141
C        2.55381801      -0.59988384      -1.30990408       0.45400822       0.50154105      -1.76793863
C        1.93906402       0.33832718      -2.11822768      -3.03333898       1.23103677       1.26346328
C       -3.18184970       1.21086864       0.38788440      -0.96498481       1.28932330       0.93180697
C        0.85327473      -0.48831199       0.36349085       1.39750451      -1.25940202      -0.64097173
C        0.26442372       0.48493129      -0.41034630      -0.44608372       1.43930645      -1.39206483
O       -0.71177074      -0.61028944       2.19106989       0.11324012      -0.43429603       0.22907907
O       -2.22168558       0.67208969      -1.69205583       0.78251539       0.04163729       0.28819025
O        1.26216013      -1.72148990       2.27608388       0.60285325      -0.28181910      -1.28324623
C        0.32837089      -0.95601195       1.65516527      -0.26671531       0.81983003       0.53959437
C       -2.06390332       0.90622324      -0.50388953      -0.59959464      -1.01397258      -1.59549569
O       -0.87327840       0.92402879       0.16343171      -1.35649196       1.20404285      -0.10429340
H        1.10265792      -1.64522668       3.20364380      -0.62249896      -0.21162441       1.81298577
H        2.61850902      -1.73409809       0.49036374      -0.30858569      -0.10178765      -0.37471480
H        0.01847342       1.52023621      -2.40932595       1.36712543      -0.48091251       1.44953750
H        3.42310028      -1.02886645      -1.70769650       1.82725637      -1.02174708      -0.58840092
H        2.08275175       0.45031734      -3.15120026       1.28311922       0.32437484      -1.88087392
H       -2.91870277       1.01315183       1.44160127      -0.15910194      -0.14505147       0.07324495
H       -3.20771871       2.33113735       0.27761144      -0.46294029      -0.23810257       0.33171889
H       -4.19562811       0.80706975       0.08935365       0.98756492       0.15397367       0.02303889
21
Properties=species:S:1:pos:R:3:forces:R:3 energy=-17617.533451111638 pbc="F F F"
C        1.97665845      -1.21075947      -0.22060906      -0.27325424      -1.60404199       0.95536461
C        1.60765040       1.51572193      -0.77491117      -3.70578771      -0.12849891       2.69181267
C        2.91659240      -0.54187093      -0.90134742       2.27203916       4.01911678      -2.28822828
C        2.73447785       0.91646797      -1.14365863       1.20091536      -3.13638848      -0.25974561
C       -3.04655637       1.69943213       0.29375119       0.78800336      -0.36250020      -0.76596977
C        0.79973118      -0.55402314       0.25194107      -1.16475458      -2.50693777       0.89805156
C        0.58964580       0.77943032       0.01419927       0.64354926       2.96611679      -0.84213678
O       -1.30703372      -0.90541544       1.53908118       2.95965638      -0.94573758      -1.01081480
O       -1.77224832       0.13442846      -0.94448875       0.47223514       0.76815397       0.11125688
O       -0.48949827      -2.70114772       0.38056764       0.79146870       1.49750016       0.90305133
C       -0.33991964      -1.36180859       0.86270783      -3.56034574      -0.66319574       0.40004768
C       -1.77438990       1.05248836      -0.15026257       0.51723749      -1.28645914      -0.95435515
O       -0.52435535       1.52985429       0.48040372      -0.70408067      -1.30968454      -1.62694554
H       -1.31454635      -3.06466947       0.82081771       0.76766274       0.74637857      -0.30886913
H        2.27193591      -2.26484125       0.00834505      -1.00167519       0.31002000       0.00637778
H        1.45196073       2.57439704      -0.93580600      -0.26284759       0.61117906      -0.10137777
H        3.85158649      -0.92517607      -1.39220113      -0.63995444      -0.37775816       0.77164173
H        3.41522186       1.58271530      -1.64116337       1.15703093      -0.07230840      -0.62146748
H       -3.93542377       1.26623338      -0.26546659       0.85352641       0.02447630       0.96812608
H       -2.91570840       1.58627970       1.36555946      -0.99449919       0.12868932       0.95156164
H       -2.95853999       2.73221581       0.00497585      -0.11612552       1.32188001       0.12261828
21
Properties=species:S:1:pos:R:3:forces:R:3 energy=-17617.58637425592 pbc="F F F"
C        2.16865422      -0.11682346       0.76828944      -1.15130523       0.09849885      -2.26118864
C        1.11594336       1.55740816      -1.32867383      -2.77385429      -2.24024787       0.36740428
C        2.98936892       0.86980931       0.06529579      -3.30032297      -2.70104437       1.66440854
C        2.44685878       1.56437645      -1.02898766       0.65243813      -0.09985475       1.75002960
C       -3.42193292       0.33889784      -0.71758136      -1.40350743       0.18394225       0.48031813
C        0.78299307      -0.35867512       0.30839882       2.46214250       1.00080559      -0.89270161
C        0.26027829       0.53231348      -0.68301129      -1.03478783       2.71450914       0.48549494
O       -0.98624471      -1.98334858       0.31036363      -0.34806885       0.12374303      -0.16163407
O       -2.09190794       1.16392405       1.22185691       0.22430525      -0.73562308      -1.41606023
O        1.04138625      -2.63276835       1.05193668      -1.44699832       0.89348641      -0.34485600
C        0.16897452      -1.66244186       0.53815994       0.26414770      -0.55331435       0.84480461
C       -2.18962901       0.75113004       0.08099215      -0.19202318       0.23633910       0.32137225
O       -1.15428965       0.70179119      -0.89160460       2.05954295      -0.71723845      -0.02241756
H        0.30398188      -3.28157231       1.17222212       0.67677333      -0.65447656       0.23712159
H        2.47382997      -0.88702770       1.52505541       0.39552393       0.92022703      -0.30878423
H        0.67912483       2.29045229      -2.04019533      -0.00497205      -0.41953233       0.23408090
H        3.85368223       1.10883377       0.61242638       2.12156256       0.56946947       0.14388645
H        3.05336409       2.32970279      -1.42211105       1.09462195       1.28489683      -1.05355977
H       -3.49737048      -0.77737390      -0.84483154       0.22514081       0.48201752       0.37870135
H       -4.44265043       0.74377833      -0.33446811       1.56724795      -0.52514152      -0.16643303
H       -3.26380514       0.71606593      -1.73691539      -0.08760693       0.13853794      -0.27998750
21
Properties=species:S:1:pos:R:3:forces:R:3 energy=-17617.287549163495 pbc="F F F"
C        2.13563643      -0.39351005      -0.16877865       2.75571829       0.55463739       1.60693793